# LAMMPS data file written by OVITO Basic 3.10.2

268 atoms
1 atom types

-10 10 xlo xhi
-10 10 ylo yhi
-10 10 zlo zhi

Atoms  # atomic

1 1 -6.55879 0.734933 -6.3094
2 1 -4.02162 -0.162935 -8.45556
3 1 -7.90534 -5.36382 -9.00744
4 1 1.34226 -2.64119 -6.84514
5 1 2.39143 -7.66457 -6.96454
6 1 -9.90892 -0.638915 -8.50912
7 1 -4.80363 -2.90177 -6.4536
8 1 -8.71343 -8.63957 -1.0202
9 1 9.17724 -1.06063 -2.41003
10 1 -1.05035 -3.12865 2.29553
11 1 2.66255 -5.0211 -5.73193
12 1 -4.98245 -7.73868 -2.52933
13 1 -4.24745 -7.85388 -7.67314
14 1 -5.04922 -9.28899 -4.89295
15 1 0.823014 -2.34897 -2.20579
16 1 -7.12831 -6.90821 -5.11142
17 1 -8.82689 -4.2314 -5.6709
18 1 -9.49886 -8.95475 -4.16843
19 1 -8.57219 -5.3912 3.40183
20 1 -6.03598 -2.85863 -3.6754
21 1 -7.48634 -2.06213 -7.62455
22 1 -3.269 -0.308598 -2.37106
23 1 -2.82605 -0.268133 1.55822
24 1 -3.97307 -5.75781 -3.9783
25 1 -2.5268 -7.04407 -0.905896
26 1 -4.40738 -6.20584 5.07625
27 1 -0.782697 -7.88407 -6.12283
28 1 1.7945 -5.94506 -9.84378
29 1 -9.40031 -9.93968 3.80569
30 1 -6.3079 -3.94008 6.45316
31 1 9.64831 -9.06603 -6.79363
32 1 -0.533748 -4.56429 -3.04802
33 1 0.271581 -9.98271 1.96464
34 1 -3.13368 -5.8804 -6.39527
35 1 -6.95227 -8.61244 2.1694
36 1 -7.426 -5.96688 -1.77425
37 1 -2.60809 -8.29967 9.79724
38 1 1.0447 -8.68452 8.86839
39 1 -3.9661 -9.1083 7.41445
40 1 -6.68451 -2.17021 8.4697
41 1 -3.1349 -2.98435 5.65038
42 1 -6.27497 1.17794 7.90124
43 1 0.950214 1.77411 1.14774
44 1 -2.62479 -5.80524 8.14265
45 1 -8.08549 -3.11916 1.8705
46 1 -3.72268 -8.78267 3.18029
47 1 4.38576 -5.77846 6.77457
48 1 -5.86211 -7.38253 7.18968
49 1 1.81441 -7.71286 6.62291
50 1 -8.76986 4.57047 9.05499
51 1 -9.56606 7.35141 -9.56558
52 1 -4.1652 2.86886 -8.37253
53 1 -9.59655 2.98841 -3.32485
54 1 9.78452 -0.365943 -9.51402
55 1 -9.54137 3.81116 -8.93373
56 1 -8.92166 -3.29801 -2.99778
57 1 -7.52311 4.08777 -3.75281
58 1 -9.05495 0.0444321 -4.97759
59 1 -2.99833 6.08478 -7.50828
60 1 -5.59765 -0.254792 -3.86555
61 1 -7.74075 1.45884 -8.80234
62 1 -5.54712 -3.40263 4.0428
63 1 -0.596885 4.92733 -6.81218
64 1 -6.26087 -4.56178 0.467401
65 1 -9.5269 9.30042 -7.45516
66 1 2.81938 7.80938 -4.50073
67 1 2.85043 -0.912589 -5.24642
68 1 -9.91762 4.91224 -6.20006
69 1 -6.75743 5.55118 -8.29966
70 1 -9.64507 8.55472 -3.17644
71 1 -5.80824 7.30805 -1.94934
72 1 -1.77681 3.2969 4.53111
73 1 -8.95148 -0.972957 3.52927
74 1 -9.90492 6.71107 0.424395
75 1 -4.30752 -0.510051 3.75265
76 1 -9.29446 -6.36949 0.875607
77 1 -8.27111 6.52918 -2.14281
78 1 -0.705477 4.67708 8.48399
79 1 -3.89694 1.56252 0.0199321
80 1 -2.75509 -1.45301 -6.13218
81 1 -7.9495 2.52929 5.58837
82 1 -7.99862 7.24292 2.86493
83 1 -9.87266 6.28144 7.02466
84 1 -4.10086 5.29454 -1.35251
85 1 -2.22369 7.41317 -0.174107
86 1 -0.399828 7.1797 7.0487
87 1 -3.81411 3.14147 -3.04444
88 1 -8.062 4.07337 0.148114
89 1 -4.04576 7.41645 5.68556
90 1 -9.74188 3.09947 2.05394
91 1 -0.38664 1.84299 -2.41695
92 1 -2.68818 5.85185 3.75519
93 1 -6.22277 4.20112 8.84238
94 1 -4.80165 3.00308 5.51399
95 1 -6.04393 5.92478 6.42866
96 1 -8.07155 5.0535 4.28967
97 1 -7.65214 9.46235 4.58237
98 1 -4.64534 2.93776 2.81646
99 1 -6.09918 9.54334 -0.265459
100 1 -5.63554 4.79039 1.03374
101 1 -7.56768 -5.58508 8.3527
102 1 -3.19046 2.76831 8.45579
103 1 -7.43807 -9.94665 8.07793
104 1 -8.10192 -7.55339 4.94234
105 1 -9.08718 9.21593 9.17692
106 1 -4.71893 -5.98362 2.32067
107 1 -9.27129 0.0520074 6.59886
108 1 0.0191535 3.10738 6.54387
109 1 3.69795 8.85294 7.88228
110 1 -6.77896 8.79507 7.27765
111 1 -3.86916 9.07773 9.41794
112 1 -5.47234 7.28964 1.79408
113 1 -9.39439 -1.63411 9.51986
114 1 7.36807 0.0428465 -0.806809
115 1 7.98297 -4.79069 -3.13433
116 1 4.56146 -4.87192 0.954074
117 1 9.37918 -4.85167 -8.07875
118 1 -0.0404087 1.69783 -9.6264
119 1 -7.3377 -7.77347 -7.69589
120 1 -1.19951 -3.72899 -5.64805
121 1 0.962925 -7.00484 2.47679
122 1 4.9754 -6.84769 -2.76546
123 1 8.54544 -0.477954 -5.11806
124 1 2.20422 -1.98734 -9.53714
125 1 -3.84072 -2.9231 0.782891
126 1 7.84229 -1.77114 2.60176
127 1 -1.30503 -2.61389 -8.53408
128 1 2.79752 0.999933 -9.38014
129 1 8.29524 -6.10374 -6.20686
130 1 6.14147 -5.29334 4.43604
131 1 8.03407 -7.51387 -9.41639
132 1 -0.0304881 -8.63537 -9.24455
133 1 -2.31038 -8.79851 1.09032
134 1 3.10233 -9.23743 -9.40417
135 1 1.14841 -6.47998 -3.92518
136 1 4.77617 -8.95563 1.83886
137 1 3.3589 -9.44806 5.37508
138 1 8.92032 -7.1711 1.87624
139 1 -1.05999 -8.2857 -2.94988
140 1 2.41588 -8.29456 0.356898
141 1 -7.36957 -1.56717 -0.802116
142 1 -1.62343 -5.90473 5.53305
143 1 7.70257 -9.56186 -4.20893
144 1 6.85073 -2.71943 -5.8554
145 1 4.0379 -7.31743 3.70502
146 1 5.57637 -8.39996 -4.85058
147 1 5.28919 -4.30042 -4.27049
148 1 6.35877 -7.2166 0.344323
149 1 8.10083 -7.48455 4.37928
150 1 9.0479 -3.19803 -0.809435
151 1 7.89468 -2.25296 7.99464
152 1 3.84337 -1.52046 5.80963
153 1 -8.93574 -3.39564 5.77004
154 1 7.9442 0.622948 5.91953
155 1 -3.87375 -4.18801 -8.78364
156 1 -0.261847 -8.12513 4.8544
157 1 2.51171 0.371044 -2.75984
158 1 8.13681 1.77118 -6.26943
159 1 -8.64832 1.12954 -0.793146
160 1 1.40199 -2.03705 1.07402
161 1 7.71213 -3.11976 5.17346
162 1 9.16515 -9.25371 9.92157
163 1 2.37977 -4.31236 2.43968
164 1 9.69222 -9.66668 1.44982
165 1 -0.56441 -0.310523 -0.440017
166 1 -3.69545 -3.1676 -2.27284
167 1 -6.24789 1.99369 -2.3123
168 1 4.72181 -1.52613 -0.297126
169 1 2.44733 7.96496 5.42618
170 1 0.53528 -3.91107 4.59859
171 1 4.344 -3.0932 7.79238
172 1 2.91988 0.231471 2.42408
173 1 6.7062 -9.82354 3.41717
174 1 7.80684 -8.39161 6.77383
175 1 0.413305 0.306189 6.76558
176 1 5.60342 -7.29357 8.40217
177 1 8.52256 -5.25108 8.64065
178 1 -3.79014 -3.50979 8.39789
179 1 4.14325 7.05676 -7.60798
180 1 -4.72567 8.42981 -4.33586
181 1 -0.702116 2.37932 -6.80709
182 1 -2.43457 9.34887 -8.20161
183 1 9.36898 4.27443 -9.58745
184 1 -4.15131 5.36211 -5.22967
185 1 8.97311 5.38144 -4.71718
186 1 6.64383 6.07482 -3.6336
187 1 -5.89669 3.52688 -6.26294
188 1 7.08841 -3.18572 -8.57452
189 1 -8.26097 6.62355 -5.89674
190 1 0.634234 6.2518 -9.89633
191 1 3.98933 -3.98263 -8.45351
192 1 6.01528 5.5428 0.806932
193 1 5.33998 0.931288 -2.80355
194 1 -6.74 9.78603 -6.27845
195 1 4.5696 3.55595 -9.69019
196 1 5.36089 -0.411409 -5.58891
197 1 4.64247 1.33263 0.302344
198 1 0.0978499 6.67901 -2.38441
199 1 -5.60397 7.97983 -8.46122
200 1 0.395686 -5.81522 -0.206167
201 1 6.87961 3.30981 -1.9781
202 1 -2.05811 1.29688 -4.57995
203 1 3.20784 -5.20606 -1.32697
204 1 6.25981 3.83744 -7.32231
205 1 7.91814 -7.33719 -2.21251
206 1 2.33362 4.83883 -7.80181
207 1 1.00779 7.67442 -6.47848
208 1 5.47158 0.871108 -8.19415
209 1 5.75017 1.67447 2.97161
210 1 8.99762 6.64157 0.941545
211 1 8.47809 6.0407 -7.58071
212 1 6.6029 9.21529 5.65782
213 1 5.737 9.88913 -2.63118
214 1 8.88635 8.33307 4.07576
215 1 3.58095 9.2466 0.0236312
216 1 5.80172 8.13414 -5.29784
217 1 6.46024 7.2992 -8.96317
218 1 0.34556 9.20081 -0.527354
219 1 -1.86215 2.93891 -0.231009
220 1 -1.28059 1.45625 2.91255
221 1 -0.966136 4.99124 -4.0946
222 1 3.20579 8.56555 -9.89877
223 1 9.29835 0.546195 1.42144
224 1 5.57855 -6.66818 -6.8591
225 1 5.09576 3.90451 -4.42808
226 1 -2.24649 -5.42393 1.35899
227 1 0.400553 5.20389 3.1278
228 1 -1.26618 8.31276 -5.24675
229 1 2.25097 1.77965 -6.65938
230 1 2.9623 5.13249 -2.67888
231 1 -0.0281811 5.80959 0.343457
232 1 3.19851 3.64274 0.154097
233 1 6.99251 -3.22975 0.740322
234 1 5.00359 8.84332 3.34654
235 1 8.88726 2.67613 -3.77337
236 1 3.63579 -2.74931 -2.65376
237 1 8.22751 5.48401 4.40446
238 1 -7.42245 1.34543 2.52567
239 1 1.51156 -1.35259 4.68136
240 1 -1.84618 8.00431 2.40952
241 1 1.35813 3.13252 -4.04336
242 1 5.90988 -0.350248 4.34304
243 1 1.95794 2.6383 4.1503
244 1 6.98411 0.992701 8.87622
245 1 9.64436 -5.07178 6.12966
246 1 7.08067 3.67026 9.37216
247 1 5.32203 7.38184 -1.24737
248 1 -4.63228 9.1842 3.92036
249 1 -2.34537 -0.0860524 5.95825
250 1 3.26749 6.58497 2.0116
251 1 -1.18788 9.36929 5.39911
252 1 7.78409 3.62347 6.47137
253 1 7.95024 2.90775 1.18843
254 1 5.04558 3.28236 4.97215
255 1 2.74926 -8.22106 -2.47053
256 1 4.76845 1.15514 7.40045
257 1 4.93473 5.87483 9.48226
258 1 1.09893 0.107715 9.45643
259 1 -3.69786 -0.409782 8.09448
260 1 5.89598 6.03166 3.67236
261 1 3.37443 2.19717 9.50638
262 1 -0.902821 8.48535 9.5094
263 1 5.94286 6.76135 6.87118
264 1 8.49364 6.77493 8.50066
265 1 7.82925 9.01705 -0.245113
266 1 2.99646 5.09842 5.70083
267 1 1.12854 8.31821 3.22916
268 1 2.48682 4.41983 8.07348
