ITEM: TIMESTEP
1000
ITEM: NUMBER OF ATOMS
268
ITEM: BOX BOUNDS pp pp pp
-1.0000000000000000e+01 1.0000000000000000e+01
-1.0000000000000000e+01 1.0000000000000000e+01
-1.0000000000000000e+01 1.0000000000000000e+01
ITEM: ATOMS id type xs ys zs
119 1 0.0615409 0.120629 0.127857
13 1 0.309888 0.063422 0.111704
194 1 0.173458 0.00802886 0.139363
37 1 0.351429 0.134477 -0.00537948
134 1 0.63711 0.0744239 0.018941
31 1 0.936043 0.0794281 0.0779991
143 1 0.879211 0.0169168 0.192667
3 1 0.110525 0.234461 0.0572992
132 1 0.456795 0.190773 0.0970306
34 1 0.405406 0.290905 0.17852
28 1 0.591358 0.198168 0.0630992
191 1 0.656966 0.314039 0.0132994
5 1 0.638426 0.185735 0.188877
224 1 0.768392 0.297855 0.0932324
129 1 0.844023 0.193225 0.176204
131 1 0.857287 0.185555 0.0271292
117 1 0.987356 0.297358 0.108598
54 1 0.0156188 0.468379 0.0333973
6 1 0.0663685 0.403693 0.142361
21 1 0.18884 0.339327 0.114602
7 1 0.261445 0.487316 0.132022
155 1 0.341121 0.354856 0.0750475
127 1 0.449312 0.447494 0.0961645
124 1 0.593017 0.427686 0.0602794
4 1 0.606279 0.408355 0.196333
188 1 0.872326 0.379652 0.111639
244 1 0.880458 0.47393 0.010374
16 1 0.125599 0.0990944 0.262894
18 1 0.0501511 0.0210549 0.344029
14 1 0.260587 0.0748655 0.287653
27 1 0.411085 0.104872 0.200652
255 1 0.63129 0.0783307 0.35909
135 1 0.546688 0.154275 0.280008
122 1 0.755397 0.147192 0.360312
146 1 0.745273 0.10596 0.220787
205 1 0.918315 0.0465353 0.322966
56 1 0.126642 0.235581 0.302659
9 1 0.0354743 0.321525 0.359785
20 1 0.229764 0.295566 0.240568
24 1 0.334824 0.207333 0.268686
166 1 0.39704 0.243494 0.383071
32 1 0.524625 0.269699 0.354385
147 1 0.807071 0.304195 0.286162
11 1 0.693729 0.3055 0.207085
17 1 0.988775 0.211446 0.221786
115 1 0.897851 0.187607 0.341601
123 1 0.00469637 0.414042 0.265064
60 1 0.186915 0.477353 0.367331
22 1 0.278711 0.404106 0.303947
120 1 0.490758 0.37082 0.256771
80 1 0.370508 0.472532 0.221464
165 1 0.453705 0.452372 0.371152
236 1 0.723055 0.352578 0.384749
114 1 0.878388 0.488721 0.382107
144 1 0.870448 0.416569 0.24702
8 1 0.078804 0.0629352 0.471692
12 1 0.264066 0.117792 0.419978
99 1 0.204252 0.0573521 0.521698
25 1 0.391955 0.124626 0.465024
133 1 0.405569 0.0324133 0.577007
139 1 0.476227 0.034954 0.400399
140 1 0.577935 0.0958045 0.492135
136 1 0.704757 0.0501959 0.568512
148 1 0.790178 0.0659857 0.458873
138 1 0.886969 0.138151 0.517581
164 1 0.97907 0.0432371 0.556717
76 1 0.0690347 0.196355 0.502881
36 1 0.178712 0.222862 0.429601
64 1 0.23976 0.319793 0.500368
106 1 0.299658 0.244123 0.599072
226 1 0.429452 0.222414 0.562261
200 1 0.580742 0.230726 0.485174
203 1 0.717542 0.240182 0.453447
116 1 0.801172 0.232814 0.576685
150 1 0.953476 0.252821 0.453307
45 1 0.157599 0.428093 0.580678
141 1 0.104221 0.406826 0.445509
10 1 0.480621 0.361591 0.535522
125 1 0.341871 0.363023 0.416859
23 1 0.381979 0.469419 0.526169
15 1 0.583048 0.402397 0.429143
160 1 0.665847 0.412281 0.547746
168 1 0.795039 0.426816 0.479599
233 1 0.879543 0.337474 0.541144
159 1 0.996564 0.492459 0.45324
104 1 0.00894791 0.0675269 0.692848
35 1 0.224122 0.137269 0.637246
46 1 0.324348 0.050005 0.683402
26 1 0.205218 0.142632 0.785065
49 1 0.633062 0.130369 0.796515
33 1 0.529148 0.065667 0.624277
145 1 0.672625 0.155452 0.664877
149 1 0.871755 0.0706288 0.721183
19 1 0.0875 0.179392 0.639691
153 1 0.0844375 0.284799 0.731845
62 1 0.309035 0.32295 0.706239
30 1 0.208767 0.278324 0.794536
121 1 0.505112 0.190399 0.684347
163 1 0.642638 0.28384 0.606657
130 1 0.813019 0.194131 0.724103
161 1 0.901249 0.294535 0.771563
73 1 0.0626152 0.414707 0.69474
75 1 0.292155 0.432507 0.626341
41 1 0.430575 0.342245 0.767822
239 1 0.593168 0.441018 0.735594
170 1 0.530187 0.340085 0.667108
242 1 0.829876 0.460281 0.7362
126 1 0.926317 0.390171 0.660907
48 1 0.0731727 0.108632 0.810624
103 1 0.0736383 0.00273004 0.893699
39 1 0.28945 0.0841668 0.880294
38 1 0.489336 0.0884726 0.966055
251 1 0.395823 0.0554612 0.799649
156 1 0.496441 0.146109 0.832042
176 1 0.763072 0.115635 0.959327
137 1 0.664864 0.00177905 0.812794
245 1 0.00959341 0.227676 0.840027
101 1 0.11971 0.26095 0.919398
142 1 0.462908 0.27015 0.877149
44 1 0.358934 0.272585 0.965381
47 1 0.73913 0.195127 0.847472
171 1 0.725406 0.323906 0.892247
177 1 0.945805 0.277666 0.967392
113 1 0.0655016 0.391821 0.932922
107 1 0.0355208 0.469756 0.825742
178 1 0.277987 0.355531 0.890337
40 1 0.196082 0.410209 0.983016
175 1 0.492846 0.485842 0.818954
249 1 0.347188 0.463064 0.828386
152 1 0.709309 0.431089 0.804511
154 1 0.90207 0.490767 0.849863
151 1 0.859253 0.359402 0.896286
61 1 0.074302 0.585863 0.0509235
1 1 0.143546 0.55507 0.167934
2 1 0.298604 0.588562 0.0440936
118 1 0.435655 0.57138 0.0255473
181 1 0.486341 0.633508 0.13373
229 1 0.619107 0.628631 0.173675
128 1 0.671081 0.546926 0.0685788
208 1 0.804276 0.557393 0.0935589
55 1 0.957553 0.653389 0.116874
68 1 0.0329232 0.746079 0.176954
69 1 0.109402 0.829426 0.0973515
52 1 0.2638 0.716158 0.0721256
184 1 0.244712 0.758158 0.197164
59 1 0.3641 0.799658 0.0490367
63 1 0.468909 0.764482 0.123506
190 1 0.561969 0.820958 0.0464584
206 1 0.705652 0.738604 0.170525
204 1 0.813797 0.702553 0.0953125
51 1 0.0386074 0.942663 0.0978497
199 1 0.230887 0.916071 0.0371596
182 1 0.367989 0.934334 0.0906835
262 1 0.487626 0.953266 0.0219697
222 1 0.587847 0.984733 0.126167
179 1 0.678087 0.868114 0.116954
211 1 0.857435 0.830511 0.0587262
65 1 0.925125 0.891179 0.160668
53 1 0.0393142 0.614403 0.395751
58 1 0.0795834 0.524587 0.288186
167 1 0.279348 0.667545 0.391708
91 1 0.493921 0.598117 0.362448
202 1 0.414966 0.59752 0.245136
157 1 0.619311 0.530272 0.377288
67 1 0.660857 0.51956 0.250017
193 1 0.80701 0.632904 0.3346
196 1 0.798002 0.533302 0.227462
158 1 0.945337 0.586729 0.242975
57 1 0.150277 0.689772 0.356122
187 1 0.141296 0.683184 0.223408
87 1 0.342273 0.707394 0.277237
221 1 0.452776 0.790066 0.255884
241 1 0.561889 0.697196 0.290638
230 1 0.642425 0.770176 0.373706
225 1 0.750955 0.752456 0.295285
235 1 0.931415 0.693458 0.362979
185 1 0.966635 0.80911 0.2812
70 1 0.0754434 0.88886 0.312068
189 1 0.180972 0.887661 0.220061
180 1 0.286069 0.937776 0.295232
228 1 0.398467 0.914784 0.222462
207 1 0.504637 0.999903 0.245808
66 1 0.658866 0.950301 0.327283
198 1 0.541464 0.874031 0.339946
216 1 0.739676 0.953032 0.216429
186 1 0.828115 0.866074 0.292759
88 1 0.0826498 0.636201 0.524706
79 1 0.27394 0.542977 0.451477
98 1 0.199992 0.579579 0.561624
220 1 0.452267 0.58554 0.56893
43 1 0.5829 0.622318 0.601295
197 1 0.730954 0.585348 0.43826
223 1 0.954204 0.507086 0.579941
253 1 0.835206 0.569058 0.543117
77 1 0.135619 0.813155 0.404063
74 1 0.0795663 0.770584 0.519675
100 1 0.260311 0.704577 0.585194
84 1 0.328902 0.759564 0.482449
219 1 0.443172 0.674996 0.468312
231 1 0.52963 0.770455 0.504531
232 1 0.656539 0.687561 0.494664
192 1 0.75567 0.772303 0.525907
201 1 0.870655 0.704977 0.497365
210 1 0.9546 0.805119 0.547169
71 1 0.259006 0.862374 0.411952
112 1 0.258069 0.935751 0.523354
85 1 0.390133 0.892218 0.551868
218 1 0.505508 0.911215 0.470118
215 1 0.628957 0.934934 0.532509
247 1 0.719484 0.884721 0.442379
265 1 0.908344 0.931857 0.525403
213 1 0.845249 0.951917 0.407646
90 1 0.0232278 0.608562 0.64336
238 1 0.154021 0.547581 0.710139
94 1 0.294149 0.526731 0.71778
72 1 0.394896 0.612986 0.688023
108 1 0.486199 0.617668 0.786087
172 1 0.650288 0.512259 0.635922
209 1 0.773459 0.561432 0.662957
96 1 0.110857 0.702561 0.733039
82 1 0.157025 0.775353 0.626318
95 1 0.242493 0.683111 0.798749
92 1 0.327042 0.723544 0.69773
243 1 0.58908 0.698115 0.736541
227 1 0.521116 0.781108 0.642014
254 1 0.735429 0.669999 0.737609
260 1 0.734263 0.791592 0.658576
214 1 0.953985 0.829547 0.681961
237 1 0.906849 0.678791 0.656889
252 1 0.869282 0.707632 0.791458
29 1 0.0521955 0.934601 0.68484
248 1 0.281431 0.924925 0.710605
97 1 0.177438 0.903849 0.630017
267 1 0.456303 0.934282 0.774478
240 1 0.397956 0.843229 0.681892
234 1 0.572764 0.96957 0.716241
250 1 0.620809 0.866619 0.646691
173 1 0.820552 0.985877 0.62355
212 1 0.828235 0.874471 0.704202
81 1 0.120576 0.576678 0.853016
42 1 0.186434 0.541945 0.967711
259 1 0.309098 0.58967 0.88547
78 1 0.437357 0.661399 0.907448
261 1 0.641299 0.604599 0.950314
258 1 0.5362 0.507837 0.945651
256 1 0.721768 0.566823 0.843699
246 1 0.858344 0.61838 0.893832
50 1 0.0737275 0.688792 0.921061
83 1 0.0160653 0.76986 0.813228
102 1 0.258883 0.785653 0.882377
93 1 0.171181 0.764245 0.985605
86 1 0.390303 0.788244 0.919755
268 1 0.562481 0.715321 0.950697
266 1 0.601412 0.792343 0.846845
257 1 0.726197 0.803064 0.909067
195 1 0.758991 0.688122 0.971075
183 1 0.948722 0.693071 0.973866
110 1 0.0813948 0.894837 0.809088
89 1 0.216915 0.894529 0.823817
111 1 0.209065 0.984592 0.922383
169 1 0.494116 0.877843 0.88931
109 1 0.62826 0.955284 0.934771
217 1 0.747642 0.898919 1.00172
174 1 0.802376 0.984777 0.811047
162 1 0.831465 0.9973 0.944796
264 1 0.933515 0.833953 0.943015
105 1 0.970505 0.97064 0.976699
263 1 0.838287 0.833109 0.843864
ITEM: TIMESTEP
2000
ITEM: NUMBER OF ATOMS
268
ITEM: BOX BOUNDS pp pp pp
-1.0000000000000000e+01 1.0000000000000000e+01
-1.0000000000000000e+01 1.0000000000000000e+01
-1.0000000000000000e+01 1.0000000000000000e+01
ITEM: ATOMS id type xs ys zs
119 1 0.0524664 0.101918 0.112747
244 1 0.888352 0.445855 0.0209265
13 1 0.31056 0.0571321 0.118458
188 1 0.873303 0.357436 0.120731
134 1 0.60646 0.0660136 -0.0013683
31 1 0.903878 0.0940892 0.109887
4 1 0.594268 0.410677 0.182491
3 1 0.117069 0.21839 0.0397655
132 1 0.465752 0.171457 0.122939
34 1 0.412745 0.287037 0.165538
28 1 0.590421 0.190894 0.0464179
191 1 0.646696 0.311389 -0.00403256
5 1 0.629287 0.186356 0.177557
224 1 0.757633 0.296861 0.0771904
124 1 0.582502 0.423031 0.0476317
129 1 0.838031 0.201689 0.21301
131 1 0.819497 0.182811 0.0271062
117 1 0.994133 0.276574 0.0776009
54 1 0.0218437 0.439847 0.0385154
6 1 0.0817611 0.382569 0.148863
21 1 0.198463 0.322304 0.0991082
7 1 0.249758 0.474364 0.112662
155 1 0.345719 0.342435 0.0586389
127 1 0.437644 0.444134 0.0791239
16 1 0.10843 0.0921324 0.248721
18 1 0.0533943 0.00630241 0.3447
14 1 0.244965 0.0713711 0.293492
27 1 0.367924 0.10631 0.228712
139 1 0.48497 0.0387644 0.406741
255 1 0.646349 0.104578 0.348599
135 1 0.538988 0.164606 0.279799
122 1 0.771801 0.173331 0.378984
146 1 0.72921 0.104433 0.227854
205 1 0.923163 0.0302548 0.338165
56 1 0.123903 0.226693 0.292111
9 1 0.0519067 0.317889 0.388849
20 1 0.220121 0.297149 0.233001
24 1 0.334502 0.236085 0.255121
166 1 0.370958 0.263019 0.386061
32 1 0.502412 0.282607 0.342553
147 1 0.769418 0.304266 0.276333
17 1 0.98936 0.22033 0.208512
115 1 0.907 0.163333 0.341153
123 1 -0.00188204 0.358502 0.262929
60 1 0.177394 0.510244 0.360732
22 1 0.255079 0.416296 0.290823
80 1 0.354872 0.465926 0.20455
165 1 0.44218 0.455575 0.364624
120 1 0.477596 0.3813 0.243898
236 1 0.732705 0.377844 0.388388
144 1 0.863228 0.404277 0.256337
114 1 0.852092 0.485202 0.375269
207 1 0.483885 0.0260756 0.256772
143 1 0.87545 0.00667164 0.21448
11 1 0.676013 0.305476 0.186815
8 1 0.0858112 0.0459466 0.473202
12 1 0.275337 0.145347 0.406524
99 1 0.219438 0.0656824 0.512565
25 1 0.391632 0.104217 0.482035
133 1 0.402845 0.0273393 0.593077
140 1 0.584744 0.111173 0.475853
136 1 0.706643 0.0617572 0.560432
148 1 0.797691 0.0639349 0.462059
138 1 0.892503 0.124891 0.5382
164 1 0.987129 0.0255377 0.571034
76 1 0.067263 0.176261 0.512469
36 1 0.167323 0.231766 0.442237
64 1 0.233901 0.328442 0.50459
106 1 0.296691 0.236802 0.579845
226 1 0.4253 0.227658 0.538695
200 1 0.592309 0.250552 0.469995
203 1 0.73855 0.265355 0.472468
116 1 0.828338 0.226591 0.603982
150 1 0.956452 0.235681 0.45891
233 1 0.893869 0.332081 0.547439
45 1 0.157148 0.428433 0.565596
141 1 0.0880349 0.439757 0.443158
10 1 0.473504 0.366412 0.494489
125 1 0.314984 0.388467 0.412029
23 1 0.399774 0.484096 0.535671
15 1 0.60287 0.413315 0.434457
160 1 0.677251 0.415062 0.562001
168 1 0.805772 0.430957 0.506477
159 1 0.969401 0.509242 0.455145
104 1 0.0232858 0.0721127 0.70929
35 1 0.232862 0.128913 0.633745
46 1 0.328088 0.0541979 0.713655
26 1 0.226751 0.130707 0.806442
49 1 0.655771 0.141579 0.766121
33 1 0.534368 0.0672235 0.610077
145 1 0.698591 0.176159 0.640267
149 1 0.889128 0.0865831 0.743729
19 1 0.0992881 0.167461 0.643772
153 1 0.0954219 0.274234 0.732685
62 1 0.308 0.312418 0.688013
41 1 0.436075 0.317075 0.7301
121 1 0.512213 0.197545 0.646759
163 1 0.619622 0.283087 0.605798
130 1 0.852811 0.219864 0.739303
161 1 0.935292 0.322307 0.780765
73 1 0.0893431 0.408516 0.696968
75 1 0.301859 0.440934 0.625077
239 1 0.596891 0.445577 0.731086
170 1 0.515309 0.38033 0.635496
126 1 0.954856 0.399387 0.654227
242 1 0.839976 0.464548 0.733423
156 1 0.519493 0.171993 0.782152
48 1 0.0867462 0.105797 0.827611
103 1 0.0783179 0.000725736 0.910823
39 1 0.304133 0.0763281 0.905273
38 1 0.475316 0.0350849 0.956098
251 1 0.42727 0.0679592 0.814795
162 1 0.834963 0.0203455 0.983409
137 1 0.6929 0.0121626 0.816999
176 1 0.72637 0.116179 0.933368
245 1 0.0100117 0.222898 0.858358
101 1 0.123862 0.268811 0.911786
30 1 0.221188 0.266037 0.798684
142 1 0.485796 0.276238 0.866426
44 1 0.379004 0.254859 0.955314
47 1 0.749134 0.217342 0.833191
171 1 0.73363 0.337321 0.891058
177 1 0.92217 0.250272 0.965244
113 1 0.0924481 0.401036 0.928793
107 1 0.0432651 0.46117 0.818061
178 1 0.305118 0.340203 0.876672
40 1 0.222883 0.413028 0.959175
249 1 0.3994 0.423236 0.806224
151 1 0.864299 0.365115 0.912348
152 1 0.717357 0.437257 0.800969
154 1 0.911785 0.490187 0.847025
37 1 0.380033 0.125199 1.01506
61 1 0.0504798 0.565377 0.0732629
1 1 0.133203 0.516749 0.179139
2 1 0.284665 0.577577 0.0315371
118 1 0.41933 0.568708 0.0178446
181 1 0.471699 0.628403 0.126856
229 1 0.607185 0.628864 0.161318
128 1 0.673669 0.541603 0.0606516
208 1 0.816928 0.552629 0.0660221
55 1 0.940826 0.64722 0.110673
68 1 0.0308253 0.734509 0.167624
69 1 0.0966544 0.829828 0.0855155
52 1 0.260332 0.700877 0.0736968
194 1 0.181607 0.997171 0.140237
59 1 0.352129 0.792984 0.0502532
63 1 0.457111 0.758713 0.12432
190 1 0.577379 0.794021 0.0744863
206 1 0.690719 0.744959 0.153667
204 1 0.808516 0.719427 0.0923761
211 1 0.853891 0.838521 0.0586834
51 1 0.0273707 0.95213 0.101438
199 1 0.232517 0.893886 0.0489029
182 1 0.366434 0.929051 0.111067
262 1 0.489618 0.921543 0.0443731
222 1 0.572065 0.999892 0.126276
179 1 0.67637 0.908761 0.129233
65 1 0.920502 0.888038 0.165464
217 1 0.749689 0.917675 0.0152054
186 1 0.827393 0.846491 0.304406
58 1 0.0358776 0.497465 0.285484
216 1 0.7448 0.951588 0.242029
91 1 0.486898 0.604638 0.352958
202 1 0.40441 0.587387 0.23719
157 1 0.606321 0.532079 0.366646
67 1 0.653853 0.519213 0.236771
193 1 0.798265 0.623777 0.321134
196 1 0.794073 0.523559 0.204226
158 1 0.935412 0.588127 0.241385
57 1 0.153151 0.653033 0.349645
187 1 0.127376 0.651835 0.218735
184 1 0.22285 0.737156 0.193595
87 1 0.328671 0.694973 0.264069
221 1 0.435038 0.779968 0.253317
241 1 0.55036 0.702599 0.27984
230 1 0.632947 0.783966 0.361124
225 1 0.734238 0.745621 0.282106
235 1 0.910355 0.701977 0.364581
185 1 0.964876 0.799961 0.271875
70 1 0.0715269 0.871006 0.314285
189 1 0.167871 0.869163 0.217111
180 1 0.264767 0.931988 0.295981
228 1 0.390457 0.913502 0.242832
198 1 0.521034 0.873978 0.349038
66 1 0.635241 0.966067 0.331927
88 1 0.0894516 0.640576 0.519307
79 1 0.281571 0.541103 0.464654
98 1 0.206662 0.587937 0.569514
220 1 0.47045 0.597808 0.572507
197 1 0.716549 0.589405 0.429667
253 1 0.822665 0.585044 0.53421
77 1 0.133989 0.786945 0.399708
74 1 0.0762056 0.776081 0.522127
100 1 0.248838 0.715059 0.586065
84 1 0.32215 0.769503 0.486961
219 1 0.442607 0.678988 0.468708
231 1 0.530711 0.773916 0.508636
232 1 0.654407 0.704526 0.475584
192 1 0.748552 0.782772 0.526373
201 1 0.864679 0.718681 0.497058
210 1 0.952046 0.797166 0.561448
71 1 0.242296 0.863137 0.417385
112 1 0.243039 0.938009 0.531497
85 1 0.382762 0.897028 0.550958
218 1 0.502106 0.914214 0.483373
215 1 0.632471 0.942753 0.53372
247 1 0.714103 0.888171 0.44185
265 1 0.898702 0.925188 0.5459
223 1 0.946491 0.522076 0.591164
53 1 0.0194272 0.619078 0.396026
167 1 0.293268 0.66372 0.39166
213 1 0.849618 0.936299 0.418564
90 1 0.0320585 0.618709 0.641759
238 1 0.182153 0.536975 0.702717
94 1 0.33159 0.521052 0.739406
72 1 0.402232 0.623121 0.683885
108 1 0.490182 0.623911 0.781649
172 1 0.671766 0.524661 0.643615
43 1 0.605634 0.632441 0.597672
209 1 0.796218 0.577225 0.668031
96 1 0.0939132 0.688844 0.749246
82 1 0.14359 0.776186 0.640091
92 1 0.326419 0.730974 0.688761
243 1 0.595163 0.701339 0.73442
227 1 0.528797 0.787344 0.644703
254 1 0.737079 0.672108 0.745886
260 1 0.735462 0.799157 0.662695
214 1 0.961576 0.842872 0.699178
237 1 0.913645 0.688217 0.668359
252 1 0.857445 0.714004 0.798219
29 1 0.0643777 0.940613 0.702212
248 1 0.289032 0.924853 0.727102
97 1 0.181124 0.903358 0.647185
267 1 0.46767 0.943482 0.770838
240 1 0.40338 0.846302 0.674335
234 1 0.585689 0.986915 0.71679
250 1 0.625377 0.877605 0.649356
212 1 0.831142 0.882616 0.711417
173 1 0.818276 1.00968 0.646013
95 1 0.238805 0.700022 0.789036
81 1 0.103108 0.579494 0.83691
42 1 0.214218 0.54471 0.923118
259 1 0.307995 0.600739 0.848005
78 1 0.424736 0.657605 0.900216
261 1 0.634553 0.612717 0.946963
258 1 0.533919 0.516798 0.945937
256 1 0.722873 0.56779 0.845507
246 1 0.866463 0.616788 0.89698
50 1 0.0809538 0.642136 0.963482
83 1 0.00788141 0.783143 0.812256
102 1 0.256219 0.783005 0.890912
175 1 0.510037 0.495563 0.817825
86 1 0.389952 0.787826 0.921094
268 1 0.555035 0.726182 0.953784
266 1 0.615101 0.791209 0.848548
257 1 0.733747 0.80685 0.91825
195 1 0.760029 0.68351 0.970399
263 1 0.836026 0.84759 0.847199
183 1 0.952799 0.69737 0.968133
110 1 0.0949791 0.896544 0.825574
89 1 0.228692 0.89954 0.844265
111 1 0.213579 0.980764 0.949972
169 1 0.495786 0.881995 0.891054
109 1 0.634418 0.943162 0.919156
264 1 0.934467 0.83739 0.943384
174 1 0.830562 1.00042 0.840815
105 1 0.968644 0.968966 0.981726
93 1 0.16504 0.74253 0.991544
ITEM: TIMESTEP
3000
ITEM: NUMBER OF ATOMS
268
ITEM: BOX BOUNDS pp pp pp
-1.0000000000000000e+01 1.0000000000000000e+01
-1.0000000000000000e+01 1.0000000000000000e+01
-1.0000000000000000e+01 1.0000000000000000e+01
ITEM: ATOMS id type xs ys zs
44 1 0.340049 0.310871 0.10584
13 1 0.245327 0.142166 0.139184
194 1 0.152872 0.0386872 0.165135
81 1 0.172263 0.499679 0.0235921
54 1 0.964026 0.431666 0.0441782
144 1 0.869203 0.208658 0.146978
208 1 0.832929 0.385516 0.0591761
21 1 0.209239 0.380789 0.0805821
132 1 0.403133 0.179458 0.118603
115 1 0.963427 0.121098 0.184875
188 1 0.816382 0.254766 0.0117897
5 1 0.549617 0.169352 0.132585
224 1 0.697907 0.14983 0.0645996
119 1 0.0525867 0.118436 0.0936466
11 1 0.64844 0.287242 0.144988
128 1 0.721001 0.494441 0.0802563
124 1 0.645975 0.367619 0.0209691
6 1 0.0747534 0.33485 0.157629
17 1 0.0690195 0.247122 0.0424773
127 1 0.515882 0.39554 0.0757603
155 1 0.439175 0.400659 0.176304
146 1 0.565879 0.0188814 0.0901787
40 1 0.0888059 0.490438 0.142112
129 1 0.778415 0.114171 0.196629
123 1 0.91652 0.335482 0.168721
37 1 0.243845 0.163849 -0.00432136
131 1 0.77171 0.0609165 -0.0122583
16 1 -0.00435278 0.129172 0.316879
255 1 0.608671 0.0808675 0.333079
14 1 0.133945 0.154114 0.32394
143 1 0.865127 -0.0118574 0.230119
207 1 0.443643 0.0140271 0.230916
216 1 0.668761 0.0227299 0.202248
135 1 0.503596 0.135795 0.26453
4 1 0.595101 0.380006 0.237454
233 1 0.903996 0.345928 0.379093
205 1 0.832535 0.0726673 0.354497
7 1 0.401129 0.486656 0.269371
34 1 0.490116 0.28174 0.280483
9 1 0.0361731 0.300671 0.303426
56 1 0.15186 0.213126 0.19419
24 1 0.344755 0.264797 0.299018
150 1 0.931093 0.212896 0.391023
27 1 0.342718 0.140422 0.264727
122 1 0.727959 0.1655 0.340522
147 1 0.761493 0.261001 0.244488
36 1 0.1609 0.324864 0.361116
20 1 0.240583 0.329782 0.22792
22 1 0.261692 0.481971 0.301193
114 1 0.832482 0.374874 0.261704
120 1 0.447129 0.423961 0.378573
180 1 0.164475 0.00183775 0.295104
8 1 0.089731 0.0252908 0.492395
116 1 0.862386 0.330001 0.559425
32 1 0.447413 0.206152 0.427397
25 1 0.269417 0.0837127 0.49237
139 1 0.395019 0.118256 0.516542
140 1 0.570286 0.0812003 0.468105
168 1 0.818149 0.493511 0.43629
148 1 0.835641 0.0477148 0.535833
138 1 0.875856 0.191373 0.514392
141 1 0.157837 0.419217 0.478737
76 1 0.0633044 0.166282 0.486443
126 1 0.975661 0.385907 0.555574
64 1 0.449062 0.439534 0.516612
10 1 0.616954 0.371726 0.542752
106 1 0.366635 0.344306 0.585435
200 1 0.568824 0.23721 0.488267
15 1 0.600249 0.377621 0.384879
203 1 0.721222 0.225724 0.479087
236 1 0.742961 0.354542 0.423561
12 1 0.187488 0.201529 0.445821
160 1 0.765298 0.445131 0.565944
166 1 0.313256 0.254877 0.498944
136 1 0.72504 0.10058 0.602568
159 1 0.0257826 0.430161 0.396993
125 1 0.315615 0.358806 0.412875
104 1 0.961607 0.164878 0.678145
133 1 0.243448 0.0760264 0.652621
33 1 0.493503 0.0220197 0.60636
242 1 0.696859 0.404072 0.697032
226 1 0.484278 0.242789 0.617421
29 1 0.938046 0.0286567 0.657268
35 1 0.182788 0.196475 0.684309
149 1 0.776561 0.151722 0.723396
45 1 0.153546 0.474205 0.610045
49 1 0.477378 0.0488312 0.773477
62 1 0.27875 0.282861 0.690563
170 1 0.502036 0.315233 0.71696
23 1 0.52631 0.422179 0.632823
121 1 0.360544 0.158893 0.677046
152 1 0.636952 0.263392 0.772596
153 1 0.0771582 0.364679 0.66432
30 1 0.271335 0.446135 0.686913
130 1 0.84479 0.265989 0.68667
161 1 0.848656 0.360029 0.768581
73 1 0.974982 0.402256 0.737509
75 1 0.417395 0.483639 0.732142
163 1 0.707771 0.262587 0.619237
145 1 0.570345 0.137998 0.624894
156 1 0.406042 0.156635 0.815371
47 1 0.616433 0.116586 0.756932
19 1 0.0663339 0.237308 0.612882
48 1 1.02179 0.21223 0.806277
26 1 0.140377 0.205069 0.815317
41 1 0.373954 0.312098 0.792543
258 1 0.60976 0.391029 0.844957
103 1 0.000740795 0.0301669 0.981244
39 1 0.167413 0.11936 0.888357
262 1 0.374671 0.0169311 0.951703
109 1 0.49571 -0.00183226 0.889916
38 1 0.391981 0.186799 0.969805
3 1 0.180159 0.292556 0.982819
176 1 0.681306 0.0272435 0.830164
151 1 0.755701 0.334888 0.890642
261 1 0.686769 0.517188 0.83851
46 1 0.30259 0.0842659 0.851385
101 1 0.148006 0.342262 0.851012
142 1 0.340991 0.311286 0.949849
174 1 0.839392 0.0255113 0.803479
191 1 0.652638 0.239931 0.944244
28 1 0.533099 0.175285 0.920202
171 1 0.765014 0.165277 0.860119
177 1 0.946024 0.100151 0.891372
113 1 0.0281735 0.416708 0.913217
175 1 0.424628 0.435124 0.962365
178 1 0.235039 0.442274 0.828407
244 1 0.844947 0.45231 0.934457
245 1 0.953982 0.302226 0.869435
134 1 0.604565 0.0526974 0.954982
117 1 0.958139 0.21258 0.981273
239 1 0.476996 0.421296 0.840585
61 1 0.94947 0.567846 0.0315783
199 1 0.176176 0.917913 0.0133467
2 1 0.478484 0.638837 0.0963986
31 1 0.794279 0.943674 0.040486
181 1 0.574161 0.734061 0.152762
217 1 0.820132 0.739191 0.095381
187 1 0.175245 0.744022 0.164061
93 1 0.0777715 0.721983 0.0697658
268 1 0.66085 0.797934 0.0937004
42 1 0.341108 0.675789 0.0860446
69 1 0.0249824 0.84595 0.0762512
52 1 0.336148 0.800476 0.036159
179 1 0.725114 0.898781 0.152488
189 1 0.13631 0.894261 0.162132
63 1 0.4546 0.850714 0.0955095
190 1 0.586775 0.875687 0.0295051
206 1 0.713796 0.648144 0.171082
204 1 0.806482 0.549825 0.165569
51 1 0.925866 0.987931 0.103304
65 1 0.957545 0.797915 0.194229
184 1 0.258901 0.852411 0.156268
182 1 0.278807 1.00601 0.0727271
211 1 0.959126 0.665844 0.109787
80 1 0.580024 0.520413 0.119333
222 1 0.438624 0.989291 0.0968623
1 1 0.278164 0.675337 0.207631
67 1 0.632586 0.523801 0.244622
57 1 0.187986 0.693825 0.346039
165 1 0.434697 0.60585 0.226511
71 1 0.257286 0.891863 0.374751
186 1 0.834104 0.843154 0.233553
18 1 0.00450047 0.9969 0.364327
58 1 0.184538 0.56926 0.216927
202 1 0.389739 0.696371 0.32859
68 1 0.0551194 0.712498 0.256752
197 1 0.60319 0.530122 0.395801
193 1 0.86505 0.613043 0.32316
77 1 0.137749 0.823819 0.39597
158 1 0.00618177 0.55672 0.334324
66 1 0.581105 0.957325 0.354646
87 1 0.333411 0.816633 0.273546
221 1 0.487605 0.83359 0.218407
241 1 0.526017 0.752507 0.347209
230 1 0.673208 0.794709 0.368908
225 1 0.778787 0.725477 0.274753
235 1 0.959878 0.716707 0.377641
185 1 0.933796 0.860185 0.36011
70 1 0.0722137 0.877228 0.287973
55 1 0.987927 0.571383 0.203895
213 1 0.69771 0.908726 0.319341
228 1 0.304558 0.982281 0.243019
198 1 0.466407 0.908096 0.328146
229 1 0.567947 0.648409 0.265461
196 1 0.77831 0.501143 0.27195
53 1 0.131798 0.58726 0.388253
88 1 0.110962 0.639358 0.51058
265 1 0.789514 0.959672 0.413082
167 1 0.294671 0.698982 0.430585
247 1 0.690934 0.872769 0.49981
99 1 0.21089 0.96474 0.489529
91 1 0.441881 0.592556 0.545055
79 1 0.303658 0.607957 0.525719
164 1 0.958095 0.950623 0.532828
74 1 0.107735 0.785261 0.524073
253 1 0.950065 0.506424 0.487321
84 1 0.332462 0.810779 0.492961
219 1 0.531887 0.702054 0.498674
231 1 0.800986 0.746027 0.424105
232 1 0.730389 0.589521 0.437895
192 1 0.854622 0.630531 0.562758
201 1 0.9771 0.662883 0.493588
210 1 0.862093 0.851218 0.513299
220 1 0.652537 0.715853 0.515334
43 1 0.696732 0.57578 0.577997
60 1 0.238201 0.520997 0.423681
218 1 0.468162 0.82032 0.481043
215 1 0.569642 0.939418 0.506854
85 1 0.416391 0.921155 0.599252
157 1 0.472382 0.575982 0.399449
94 1 0.369235 0.616679 0.736099
238 1 0.207243 0.579331 0.746517
100 1 0.298249 0.754734 0.615849
72 1 0.42044 0.691694 0.649187
267 1 0.453572 0.910124 0.739003
223 1 0.0490022 0.563882 0.64391
252 1 0.938227 0.657171 0.725604
209 1 0.898436 0.506904 0.651921
96 1 0.220513 0.783628 0.80394
82 1 0.175002 0.836394 0.645174
214 1 -0.023009 0.777815 0.599561
92 1 0.341289 0.814972 0.739902
243 1 0.56967 0.66764 0.73302
227 1 0.662347 0.785354 0.640333
254 1 0.717936 0.631743 0.699961
260 1 0.809126 0.72257 0.659607
237 1 0.0760874 0.706149 0.693208
256 1 0.814147 0.518233 0.76812
248 1 0.298009 0.988131 0.772449
97 1 0.11655 1.00137 0.635088
212 1 0.89316 0.920545 0.733742
240 1 0.517087 0.80893 0.645329
234 1 0.615317 0.911035 0.789571
110 1 0.0251636 0.885819 0.677286
112 1 0.278606 0.928776 0.612797
263 1 0.919654 0.788906 0.775976
266 1 0.688851 0.809926 0.767872
173 1 0.802481 0.882976 0.639176
172 1 0.592841 0.517288 0.693949
98 1 0.191607 0.654036 0.621495
89 1 0.160231 0.924796 0.774177
250 1 0.679739 0.963783 0.635576
107 1 0.0288822 0.523905 0.780106
108 1 0.544882 0.550955 0.840062
50 1 0.163571 0.690448 0.959052
137 1 0.765936 0.924819 0.892623
259 1 0.272276 0.583442 1.00741
118 1 0.51744 0.567412 0.980199
59 1 0.408343 0.792506 0.900789
169 1 0.529728 0.870449 0.890873
95 1 0.428458 0.653398 0.863008
246 1 0.824008 0.683514 0.942401
78 1 0.622053 0.676879 0.968551
154 1 0.9204 0.558216 0.853959
102 1 0.230659 0.816053 0.958936
86 1 0.599417 0.737731 0.845357
111 1 0.115689 0.989237 0.902862
195 1 0.722129 0.572299 0.961946
257 1 0.808142 0.795596 0.829516
249 1 0.331975 0.521447 0.89761
183 1 0.948871 0.65346 0.927552
264 1 0.0412268 0.839659 0.83955
105 1 0.982517 0.876654 0.953635
162 1 0.864265 0.819774 0.983547
251 1 0.32471 0.899113 0.877018
83 1 0.0842786 0.697299 0.843789
90 1 0.135591 0.540072 0.892167
ITEM: TIMESTEP
4000
ITEM: NUMBER OF ATOMS
268
ITEM: BOX BOUNDS pp pp pp
-1.0000000000000000e+01 1.0000000000000000e+01
-1.0000000000000000e+01 1.0000000000000000e+01
-1.0000000000000000e+01 1.0000000000000000e+01
ITEM: ATOMS id type xs ys zs
182 1 0.429741 0.00460442 0.0821606
119 1 0.0344715 0.150751 0.119661
13 1 0.220298 0.0844658 0.135665
144 1 0.916342 0.211871 0.166047
24 1 0.372501 0.180741 0.185952
224 1 0.565506 0.178091 0.0530907
66 1 0.76919 0.052431 0.0896244
6 1 0.969734 0.338715 0.185018
17 1 0.0603771 0.273739 0.0703455
56 1 0.188394 0.267369 0.0600006
44 1 0.42775 0.382823 0.11996
132 1 0.440444 0.250177 0.0847805
5 1 0.561229 0.208052 0.187619
188 1 0.872379 0.221356 0.0373846
129 1 0.758184 0.3109 0.0570836
40 1 0.040108 0.425428 0.0747645
54 1 0.923268 0.479594 0.0155371
51 1 0.984981 0.0324655 0.08211
124 1 0.706525 0.362075 0.185536
21 1 0.299159 0.423217 0.111246
127 1 0.641279 0.483159 0.110561
20 1 0.239818 0.256762 0.19391
27 1 0.355925 0.0498361 0.196123
31 1 0.890162 0.0863607 0.00765775
123 1 0.858513 0.41895 0.196051
39 1 0.17084 0.138406 0.0203349
175 1 0.455072 0.482436 0.00835181
3 1 0.232667 0.370376 0.000566283
14 1 0.123707 0.150286 0.22033
233 1 0.937154 0.263386 0.328816
115 1 0.0111232 0.13672 0.318614
60 1 0.324005 0.452362 0.288313
255 1 0.629366 0.0838342 0.207733
135 1 0.484555 0.164688 0.286717
196 1 0.789074 0.474477 0.345172
216 1 0.813664 0.113983 0.213801
122 1 0.715434 0.153867 0.315431
16 1 0.910258 0.0356146 0.292977
9 1 0.0947127 0.295685 0.294928
125 1 0.257816 0.248502 0.328201
205 1 0.816987 0.08798 0.39553
34 1 0.391223 0.288853 0.352529
11 1 0.624857 0.301706 0.26873
147 1 0.791802 0.309056 0.304929
155 1 0.45457 0.376867 0.264348
159 1 0.0458821 0.450039 0.247653
22 1 0.215121 0.395502 0.213767
180 1 0.136639 -0.0007245 0.37671
194 1 0.0974204 -0.000893624 0.231162
4 1 0.573568 0.412779 0.317827
53 1 0.135174 0.477835 0.358903
207 1 0.473201 0.0219944 0.267732
158 1 0.927653 0.484809 0.318709
114 1 0.826274 0.457363 0.522356
76 1 0.0420934 0.170518 0.474468
25 1 0.212919 0.128889 0.543618
253 1 0.968957 0.468298 0.463535
140 1 0.483747 0.188608 0.428689
236 1 0.763471 0.350609 0.427122
12 1 0.157236 0.133157 0.40712
166 1 0.265478 0.297386 0.513647
153 1 0.932883 0.361925 0.599602
200 1 0.403299 0.30167 0.493185
203 1 0.612457 0.208182 0.420331
116 1 0.835664 0.278999 0.574661
32 1 0.345533 0.163025 0.555215
141 1 0.116903 0.410199 0.475734
79 1 0.223329 0.481585 0.543052
15 1 0.637586 0.35382 0.45735
197 1 0.564233 0.465033 0.448585
164 1 0.0130204 0.0469255 0.513123
120 1 0.440753 0.437381 0.480828
33 1 0.416214 0.0781629 0.478527
160 1 0.565503 0.286653 0.556351
126 1 0.980401 0.307447 0.444917
150 1 0.84788 0.220164 0.437812
136 1 0.689762 0.0990974 0.482878
138 1 0.785518 0.139486 0.576624
36 1 0.147646 0.28876 0.436678
91 1 0.295053 0.450249 0.420635
85 1 0.497779 0.0283211 0.579821
30 1 0.367802 0.384516 0.722554
133 1 0.199728 0.161898 0.749326
242 1 0.692944 0.288687 0.735231
49 1 0.426063 0.0400666 0.735763