LAMMPS (7 Feb 2024 - Update 1)
# Simple mW water simulation
# initialisation from fcc and hard-coded variables
# Francesco Turci
# f.turci@bristol.ac.uk
# February 2025

units real
dimension 3
boundary p p p
atom_style atomic

lattice fcc 5.0
Lattice spacing in x,y,z = 5 5 5
region box block 0 5 0 5 0 5
create_box 1 box  # Define 1 atom type
Created orthogonal box = (0 0 0) to (25 25 25)
  1 by 2 by 5 MPI processor grid
create_atoms 1 random 100 12345 box  # Create 100 atoms randomly
Created 100 atoms
  using lattice units in orthogonal box = (0 0 0) to (25 25 25)
  create_atoms CPU = 0.000 seconds

# mW water model. It is stored in an additional file mW.sw where the various parameters are specified
# it is a Stillinger-Weber potential
pair_style sw
pair_coeff * * mW.sw mW
Reading sw potential file mW.sw with DATE: 2007-06-11

mass 1 18.015  # Approximate mass of water molecule in g/mol

velocity all create 300.0 12345 mom yes rot yes dist gaussian

timestep 0.5
fix 1 all nvt temp 300.0 300.0 0.5

thermo 100
thermo_style custom step temp pe ke etotal press vol

run 10000
Neighbor list info ...
  update: every = 1 steps, delay = 0 steps, check = yes
  max neighbors/atom: 2000, page size: 100000
  master list distance cutoff = 6.3065
  ghost atom cutoff = 6.3065
  binsize = 3.15325, bins = 8 8 8
  1 neighbor lists, perpetual/occasional/extra = 1 0 0
  (1) pair sw, perpetual
      attributes: full, newton on
      pair build: full/bin/atomonly
      stencil: full/bin/3d
      bin: standard
Per MPI rank memory allocation (min/avg/max) = 3.068 | 3.069 | 3.069 Mbytes
   Step          Temp          PotEng         KinEng         TotEng         Press          Volume    
         0   300            1395.6509      88.530058      1484.181       11420.711      15625        
       100   296.47802     -296.26535      87.490721     -208.77463      134.06881      15625        
       200   297.13407     -360.4834       87.684322     -272.79908     -687.23869      15625        
       300   297.00383     -337.7652       87.645888     -250.11931      424.86434      15625        
       400   297.24112     -363.51339      87.715912     -275.79748      408.18775      15625        
       500   297.40303     -377.36896      87.763692     -289.60527     -31.668473      15625        
       600   297.40687     -370.78672      87.764826     -283.02189      56.634605      15625        
       700   297.52988     -380.26529      87.801127     -292.46416     -237.19262      15625        
       800   297.69814     -395.52264      87.850779     -307.67186     -255.16111      15625        
       900   297.78376     -404.24125      87.876047     -316.3652       75.387613      15625        
      1000   297.78298     -389.86998      87.875816     -301.99417      364.18919      15625        
      1100   297.94648     -407.57459      87.924065     -319.65053     -292.10825      15625        
      1200   297.89929     -383.09142      87.910138     -295.18128     -249.30023      15625        
      1300   298.07194     -400.16248      87.961089     -312.20139     -36.283899      15625        
      1400   257.38767     -421.97547      75.955151     -346.02032      86.739305      15625        
      1500   376.02555     -423.41739      110.96521     -312.45218      267.78237      15625        
      1600   304.45967     -425.13205      89.846107     -335.28594     -153.18997      15625        
      1700   322.85089     -422.21162      95.273361     -326.93826      31.747118      15625        
      1800   309.8543      -433.8331       91.438063     -342.39503      23.970644      15625        
      1900   304.14074     -429.95474      89.751992     -340.20275     -97.152856      15625        
      2000   275.19088     -442.87129      81.208882     -361.66241      5.5823435      15625        
      2100   274.35784     -451.18328      80.963053     -370.22023     -53.444607      15625        
      2200   330.21218     -467.30539      97.445678     -369.85971     -168.48785      15625        
      2300   333.65254     -469.44827      98.460928     -370.98734      268.69743      15625        
      2400   333.66473     -479.78862      98.464526     -381.3241       467.62552      15625        
      2500   335.76463     -485.31692      99.084206     -386.23271      84.248807      15625        
      2600   277.08341     -478.92898      81.767368     -397.16161     -313.86326      15625        
      2700   281.04967     -478.12756      82.937813     -395.18975     -231.30304      15625        
      2800   305.31418     -491.00946      90.098273     -400.91119      110.46083      15625        
      2900   266.30158     -504.25727      78.585648     -425.67163      94.996144      15625        
      3000   259.03722     -512.92487      76.441934     -436.48293     -109.06751      15625        
      3100   285.45805     -515.99228      84.238726     -431.75355      49.471544      15625        
      3200   264.69136     -503.17245      78.110472     -425.06198      143.75078      15625        
      3300   298.22238     -516.44703      88.005482     -428.44155     -399.84533      15625        
      3400   291.6014      -519.7154       86.05163      -433.66377     -158.75956      15625        
      3500   274.22172     -523.16477      80.922882     -442.24189      252.23887      15625        
      3600   290.86387     -526.05396      85.833986     -440.21997      27.78695       15625        
      3700   268.57112     -528.06309      79.255389     -448.8077      -20.40107       15625        
      3800   277.42882     -513.01268      81.8693       -431.14338      90.888698      15625        
      3900   313.41587     -531.35329      92.489085     -438.86421     -397.64138      15625        
      4000   318.3281      -515.92475      93.938684     -421.98606     -51.254688      15625        
      4100   318.0189      -534.33617      93.847438     -440.48874      59.079421      15625        
      4200   335.96709     -527.8823       99.143955     -428.73834     -52.441822      15625        
      4300   286.94862     -543.46537      84.678594     -458.78677     -92.944534      15625        
      4400   282.49218     -555.27413      83.363497     -471.91064     -75.578554      15625        
      4500   255.6825      -561.50947      75.451954     -486.05751      107.13418      15625        
      4600   333.62057     -548.82954      98.451494     -450.37804      214.50105      15625        
      4700   261.35275     -553.08451      77.125248     -475.95926     -217.55905      15625        
      4800   286.99561     -558.94087      84.692459     -474.24841     -63.809045      15625        
      4900   264.27687     -554.84956      77.988157     -476.8614       147.98965      15625        
      5000   281.2608      -574.9098       83.000116     -491.90968     -235.65118      15625        
      5100   300.71519     -559.35087      88.741111     -470.60976      21.113452      15625        
      5200   319.94366     -557.55426      94.415436     -463.13882      108.7191       15625        
      5300   289.21851     -571.44532      85.348438     -486.09688      93.19778       15625        
      5400   273.44442     -564.37323      80.693502     -483.67973      196.32019      15625        
      5500   296.73603     -577.33967      87.566861     -489.77281     -203.08259      15625        
      5600   241.68706     -572.19434      71.321899     -500.87244      38.420858      15625        
      5700   310.50015     -582.15013      91.628654     -490.52147      88.419203      15625        
      5800   325.93048     -578.05303      96.182148     -481.87088     -164.69005      15625        
      5900   332.19364     -591.0823       98.030407     -493.05189     -317.82511      15625        
      6000   355.34445     -594.86052      104.86222     -489.99831      185.98485      15625        
      6100   354.59346     -608.90568      104.6406      -504.26508      79.508985      15625        
      6200   327.85413     -601.50599      96.749819     -504.75618     -214.96231      15625        
      6300   304.04507     -622.25838      89.72376      -532.53462     -438.95611      15625        
      6400   290.37311     -619.77852      85.689161     -534.08936      274.88657      15625        
      6500   309.35674     -639.02996      91.291234     -547.73872      316.8498       15625        
      6600   330.32175     -640.63086      97.478012     -543.15285      141.90173      15625        
      6700   290.949       -640.53579      85.859106     -554.67668     -137.79558      15625        
      6800   272.90185     -636.03336      80.53339      -555.49997     -288.04391      15625        
      6900   291.92495     -648.77879      86.147108     -562.63168     -214.85336      15625        
      7000   330.09188     -659.85817      97.410177     -562.44799     -142.99386      15625        
      7100   297.79456     -667.0073       87.879232     -579.12807     -29.619867      15625        
      7200   271.32043     -665.8227       80.066713     -585.75599      223.85752      15625        
      7300   336.49091     -672.63562      99.298532     -573.33708      54.920485      15625        
      7400   311.4961      -665.63277      91.922559     -573.71021     -124.52134      15625        
      7500   318.50896     -666.03712      93.992056     -572.04506      77.112043      15625        
      7600   303.64487     -669.17565      89.605659     -579.56999      161.9614       15625        
      7700   268.74239     -676.74917      79.305932     -597.44324     -126.12102      15625        
      7800   308.22935     -687.76672      90.95854      -596.80818     -248.68171      15625        
      7900   286.32853     -674.02229      84.495605     -589.52669      123.8444       15625        
      8000   298.57563     -681.5731       88.109725     -593.46337      69.55804       15625        
      8100   311.12106     -690.143        91.811886     -598.33111     -194.2479       15625        
      8200   249.61602     -688.31087      73.661735     -614.64914      62.263526      15625        
      8300   307.55205     -693.2358       90.758669     -602.47713     -193.92475      15625        
      8400   320.19369     -682.22446      94.48922      -587.73524     -256.60902      15625        
      8500   312.56046     -685.03995      92.236652     -592.8033      -5.9545607      15625        
      8600   322.7669      -682.23897      95.248575     -586.9904       281.99635      15625        
      8700   315.70148     -678.10996      93.163567     -584.9464       100.02833      15625        
      8800   310.03511     -690.01143      91.491422     -598.52001     -181.50853      15625        
      8900   334.10277     -696.05748      98.593794     -597.46368     -154.22445      15625        
      9000   321.99233     -710.66063      95.019999     -615.64063     -171.53467      15625        
      9100   334.6486      -711.60882      98.754866     -612.85396      85.686737      15625        
      9200   303.49437     -721.77287      89.561247     -632.21162      87.662477      15625        
      9300   350.25572     -718.60215      103.36053     -615.24162      83.301864      15625        
      9400   299.74939     -708.34383      88.456102     -619.88773      158.02429      15625        
      9500   313.88581     -709.85763      92.627763     -617.22986      2.0766315      15625        
      9600   350.39938     -716.45538      103.40293     -613.05246     -226.7209       15625        
      9700   321.29121     -712.12406      94.813099     -617.31096     -43.523265      15625        
      9800   279.82445     -704.51927      82.57625      -621.94302      116.43017      15625        
      9900   276.53699     -711.17921      81.60612      -629.57309      96.892378      15625        
     10000   307.91959     -715.05056      90.867131     -624.18343      190.45274      15625        
Loop time of 0.685781 on 10 procs for 10000 steps with 100 atoms

Performance: 629.939 ns/day, 0.038 hours/ns, 14581.917 timesteps/s, 1.458 Matom-step/s
90.1% CPU use with 10 MPI tasks x no OpenMP threads

MPI task timing breakdown:
Section |  min time  |  avg time  |  max time  |%varavg| %total
---------------------------------------------------------------
Pair    | 0.004396   | 0.051162   | 0.14297    |  20.7 |  7.46
Neigh   | 0.00023262 | 0.00068394 | 0.0016073  |   0.0 |  0.10
Comm    | 0.32372    | 0.40096    | 0.44271    |   6.4 | 58.47
Output  | 0.002141   | 0.0026504  | 0.0035647  |   0.7 |  0.39
Modify  | 0.11956    | 0.14294    | 0.1994     |   6.3 | 20.84
Other   |            | 0.08739    |            |       | 12.74

Nlocal:             10 ave          24 max           0 min
Histogram: 2 1 3 0 1 0 0 1 0 2
Nghost:           88.2 ave         112 max          67 min
Histogram: 1 2 0 1 2 0 2 0 0 2
Neighs:              0 ave           0 max           0 min
Histogram: 10 0 0 0 0 0 0 0 0 0
FullNghs:          141 ave         421 max           0 min
Histogram: 2 4 1 0 0 0 1 0 1 1

Total # of neighbors = 1410
Ave neighs/atom = 14.1
Neighbor list builds = 63
Dangerous builds = 0
Total wall time: 0:00:00
